[Molden Format]
[Title]
 Molden file created by orca_2mkl for BaseName=acro.cas

[Atoms] AU
O    1   8         -0.1225734585        -0.1036601356         0.0000173028 
C    2   6          2.1796531708        -0.0177994215        -0.0000422708 
C    3   6          3.6724150970         2.3453647155        -0.0000063027 
C    4   6          6.2177198215         2.3193143492         0.0000034329 
H    5   1          3.3563008600        -1.7926857841         0.0000235266 
H    6   1          2.5912266141         4.1147472799         0.0000031973 
H    7   1          7.2696765999         0.5298504536        -0.0000091598 
H    8   1          7.3388707986         4.0607244103         0.0000102737 
[GTO]
  1 0
s   5 1.0 
     2266.1767785000        -1.2615859742
      340.8701019100        -2.2748500410
       77.3631351670        -3.3479623295
       21.4796449400        -3.3299980531
        6.6589433124        -1.3203828288
s   1 1.0 
        0.8097597567         0.6083832301
s   1 1.0 
        0.2553077223         0.2559811911
p   3 1.0 
       17.7215043170         3.2460107647
        3.8635505440         2.5734959178
        1.0480920883         1.1208372892
p   1 1.0 
        0.2764154441         0.2856886381
d   1 1.0 
        1.2000000000         3.9222679946

  2 0
s   5 1.0 
     1238.4016938000         0.8208956682
      186.2900499200         1.4766449896
       42.2511763460         2.1526124058
       11.6765579320         2.1081722461
        3.5930506482         0.8290999933
s   1 1.0 
        0.4024514736         0.3601183351
s   1 1.0 
        0.1309018267         0.1551027052
p   3 1.0 
        9.4680970621         1.3467645142
        2.0103545142         1.0678070931
        0.5477100471         0.5108735714
p   1 1.0 
        0.1526861379         0.1360471976
d   1 1.0 
        0.8000000000         1.9292013661

  3 0
s   5 1.0 
     1238.4016938000         0.8208956682
      186.2900499200         1.4766449896
       42.2511763460         2.1526124058
       11.6765579320         2.1081722461
        3.5930506482         0.8290999933
s   1 1.0 
        0.4024514736         0.3601183351
s   1 1.0 
        0.1309018267         0.1551027052
p   3 1.0 
        9.4680970621         1.3467645142
        2.0103545142         1.0678070931
        0.5477100471         0.5108735714
p   1 1.0 
        0.1526861379         0.1360471976
d   1 1.0 
        0.8000000000         1.9292013661

  4 0
s   5 1.0 
     1238.4016938000         0.8208956682
      186.2900499200         1.4766449896
       42.2511763460         2.1526124058
       11.6765579320         2.1081722461
        3.5930506482         0.8290999933
s   1 1.0 
        0.4024514736         0.3601183351
s   1 1.0 
        0.1309018267         0.1551027052
p   3 1.0 
        9.4680970621         1.3467645142
        2.0103545142         1.0678070931
        0.5477100471         0.5108735714
p   1 1.0 
        0.1526861379         0.1360471976
d   1 1.0 
        0.8000000000         1.9292013661

  5 0
s   3 1.0 
       13.0107010000         0.1634903809
        1.9622572000         0.2773515510
        0.4445379600         0.3157501452
s   1 1.0 
        0.1219496200         0.1470772262
p   1 1.0 
        0.8000000000         1.0784563492

  6 0
s   3 1.0 
       13.0107010000         0.1634903809
        1.9622572000         0.2773515510
        0.4445379600         0.3157501452
s   1 1.0 
        0.1219496200         0.1470772262
p   1 1.0 
        0.8000000000         1.0784563492

  7 0
s   3 1.0 
       13.0107010000         0.1634903809
        1.9622572000         0.2773515510
        0.4445379600         0.3157501452
s   1 1.0 
        0.1219496200         0.1470772262
p   1 1.0 
        0.8000000000         1.0784563492

  8 0
s   3 1.0 
       13.0107010000         0.1634903809
        1.9622572000         0.2773515510
        0.4445379600         0.3157501452
s   1 1.0 
        0.1219496200         0.1470772262
p   1 1.0 
        0.8000000000         1.0784563492

[5D]
[7F]
[9G]
[MO]
 Sym=     1a
 Ene= -2.05683930757426E+01
 Spin= Alpha
 Occup= 2.000000
  1      -0.990270731626
  2       0.035227635487
  3      -0.024166182013
  4       0.002672958486
  5       0.000142319203
  6      -0.000000076753
  7      -0.005504625482
  8      -0.000491081769
  9       0.000000159755
 10      -0.000195246460
 11      -0.000000015101
 12      -0.000000000371
 13       0.000306773034
 14       0.000014286208
 15       0.000158486061
 16       0.001478687545
 17       0.010516772424
 18       0.000696543061
 19      -0.000143096953
 20      -0.000000005431
 21      -0.009029056973
 22       0.001754421626
 23       0.000000241577
 24       0.000415356623
 25       0.000000045556
 26       0.000000002703
 27      -0.001368859088
 28      -0.000076454825
 29       0.000007304805
 30       0.000195990694
 31      -0.003945660226
 32       0.000028853240
 33       0.000135930002
 34      -0.000000003904
 35       0.002425828586
 36      -0.000246315559
 37      -0.000000048782
 38      -0.000003324893
 39      -0.000000009186
 40       0.000000019458
 41      -0.000256681082
 42      -0.000337817304
 43       0.000034929790
 44      -0.000727967810
 45       0.000706769989
 46       0.000125737460
 47       0.000164067874
 48       0.000000012388
 49      -0.001584609674
 50      -0.001718046957
 51      -0.000000032816
 52      -0.000139854275
 53      -0.000000001123
 54       0.000000005565
 55       0.000092278768
 56      -0.000121465469
 57       0.000280514237
 58       0.000353835936
 59       0.000724395699
 60       0.000180027633
 61      -0.000000044014
 62       0.000253497090
 63       0.001014261220
 64      -0.000004186197
 65       0.000114558428
 66       0.000000004943
 67      -0.000417540770
 68       0.000032316554
 69       0.000061071937
 70       0.000042836626
 71       0.000000001313
 72       0.000396731277
 73       0.001027280630
 74       0.000025709624
 75      -0.000125213565
 76       0.000000004624
 Sym=     1a
 Ene= -1.13015244111198E+01
 Spin= Alpha
 Occup= 2.000000
  1       0.000433522794
  2       0.001053615314
  3      -0.008824424310
  4      -0.000095694519
  5      -0.000041549163
  6      -0.000000014721
  7      -0.005210841476
  8      -0.000098263623
  9       0.000000219329
 10       0.000160432499
 11       0.000000022586
 12       0.000000004493
 13      -0.000089864444
 14       0.000001587287
 15       0.990725588097
 16       0.036365669033
 17      -0.011877030785
 18      -0.000863920362
 19      -0.000315111378
 20       0.000000163444
 21      -0.008279367929
 22       0.001212424362
 23      -0.000000042693
 24      -0.001740446828
 25      -0.000000041099
 26      -0.000000033460
 27       0.000702567119
 28      -0.000064391755
 29       0.012080290536
 30      -0.001162455794
 31       0.005300740098
 32       0.000490900922
 33       0.000898206456
 34       0.000000018889
 35       0.003462111643
 36       0.000422131400
 37       0.000000037267
 38       0.000662419287
 39      -0.000000020133
 40      -0.000000022626
 41       0.000313892019
 42      -0.000694936903
 43       0.000040952297
 44      -0.000700792515
 45      -0.002427472515
 46       0.000066469470
 47       0.000233708015
 48       0.000000013566
 49       0.000515700613
 50      -0.003803099143
 51      -0.000000061785
 52      -0.000201250585
 53       0.000000004196
 54       0.000000007602
 55       0.000060023637
 56       0.000014169641
 57      -0.001530005650
 58       0.005455216767
 59       0.001176249511
 60      -0.000959901057
 61       0.000000035480
 62       0.000150262375
 63       0.000235626634
 64      -0.000202560582
 65      -0.000387879138
 66      -0.000000005497
 67      -0.000714515385
 68      -0.001226947615
 69       0.000019511375
 70      -0.000016748407
 71       0.000000000078
 72       0.000684250304
 73       0.001566862623
 74      -0.000088927843
 75       0.000019739029
 76       0.000000007101
 Sym=     1a
 Ene= -1.12746324262825E+01
 Spin= Alpha
 Occup= 2.000000
  1      -0.000007344795
  2      -0.000040036122
  3       0.000076690646
  4      -0.000021264037
  5       0.000095586390
  6       0.000000004359
  7      -0.000171558934
  8      -0.000305491708
  9       0.000000003007
 10       0.000085563617
 11       0.000000006924
 12      -0.000000003354
 13      -0.000015390876
 14      -0.000048918756
 15       0.011627638367
 16       0.002124803185
 17      -0.007645670684
 18       0.000614929725
 19       0.000865456455
 20       0.000000025945
 21      -0.001880000691
 22      -0.000876823799
 23      -0.000000053921
 24      -0.000679250729
 25       0.000000012605
 26       0.000000023210
 27      -0.000379897669
 28       0.000557534828
 29      -0.985126335706
 30      -0.035111820283
 31       0.025688656716
 32       0.000072117344
 33      -0.000313546057
 34       0.000000011729
 35       0.001503700261
 36      -0.002298870364
 37      -0.000000024990
 38       0.001415518861
 39      -0.000000008740
 40      -0.000000017626
 41      -0.000234433897
 42       0.000317931481
 43      -0.105342374974
 44      -0.000900787432
 45      -0.007351109834
 46      -0.001378370052
 47      -0.000000822286
 48      -0.000000003525
 49       0.002217718347
 50       0.000893069866
 51       0.000000015355
 52      -0.000442546125
 53       0.000000004574
 54       0.000000004812
 55       0.000136928932
 56      -0.000010426600
 57       0.000152969318
 58       0.000919153810
 59      -0.000076125303
 60      -0.000309451753
 61      -0.000000001570
 62       0.002657807901
 63      -0.004582312546
 64       0.000689911421
 65      -0.001285121897
 66      -0.000000007615
 67       0.000166277234
 68       0.000377223524
 69       0.000407155015
 70      -0.000050956177
 71       0.000000000911
 72      -0.000108455787
 73      -0.000114792446
 74       0.000381288199
 75       0.000043738724
 76       0.000000001236
 Sym=     1a
 Ene= -1.12680513854354E+01
 Spin= Alpha
 Occup= 2.000000
  1       0.000029864547
  2       0.000350603126
  3      -0.002118288392
  4      -0.000007462060
  5      -0.000037530916
  6      -0.000000012602
  7      -0.000263115998
  8      -0.000295380156
  9       0.000000045981
 10      -0.000055825817
 11      -0.000000002370
 12       0.000000004194
 13       0.000022344414
 14      -0.000049133864
 15      -0.001222177553
 16       0.000099139405
 17       0.002455844500
 18      -0.000089185127
 19      -0.000303681032
 20      -0.000000000656
 21      -0.002319655983
 22       0.002692971946
 23      -0.000000003568
 24       0.000149205193
 25      -0.000000012330
 26       0.000000005351
 27      -0.000082847063
 28      -0.000217925541
 29       0.105104296693
 30       0.006503946273
 31      -0.009961044008
 32       0.001331044113
 33       0.000216295989
 34       0.000000005172
 35       0.002117018378
 36       0.000171889784
 37       0.000000032578
 38      -0.000724203102
 39       0.000000005178
 40       0.000000007058
 41       0.000303916470
 42      -0.000152186884
 43      -0.985147596577
 44      -0.036217505073
 45       0.021734854358
 46       0.000166543988
 47       0.000078640151
 48       0.000000018198
 49      -0.000018800746
 50      -0.000864582752
 51      -0.000000036589
 52       0.001765472422
 53      -0.000000004621
 54      -0.000000015700
 55      -0.000179432322
 56      -0.000078908801
 57       0.000514788310
 58       0.001334965272
 59      -0.000008569978
 60       0.000015571118
 61      -0.000000013887
 62      -0.000082332961
 63       0.001748013370
 64      -0.000674203974
 65       0.000228544395
 66      -0.000000002234
 67       0.002158329416
 68      -0.005396179884
 69      -0.000660086225
 70       0.001280597049
 71       0.000000011649
 72       0.002520676471
 73      -0.004782189030
 74      -0.000753182325
 75      -0.001277592913
 76      -0.000000000768
 Sym=     1a
 Ene= -1.37180360799827E+00
 Spin= Alpha
 Occup= 2.000000
  1       0.260983551759
  2       0.518789172479
  3       0.296870094997
  4       0.141635388004
  5       0.006607851126
  6      -0.000003298352
  7       0.035310111887
  8       0.000954283544
  9      -0.000000502539
 10      -0.008047751323
 11      -0.000000663610
 12      -0.000000040138
 13       0.013912987315
 14       0.001355520208
 15      -0.140276399859
 16       0.267691135498
 17       0.015649369528
 18      -0.176825134235
 19       0.000406978285
 20       0.000005054558
 21      -0.013773862956
 22       0.006897311497
 23      -0.000000297074
 24      -0.016882339399
 25      -0.000001542473
 26       0.000000024845
 27       0.027219688518
 28       0.003108292875
 29      -0.023796003414
 30       0.044046307235
 31       0.021976518763
 32      -0.018232315409
 33      -0.016518692268
 34      -0.000000057661
 35       0.008517757359
 36      -0.009321601115
 37       0.000000176038
 38      -0.002486149299
 39       0.000000032926
 40       0.000000023634
 41      -0.000364552571
 42       0.004280190600
 43      -0.004552829808
 44       0.007993756510
 45      -0.012648680397
 46      -0.004712767632
 47      -0.001751084980
 48      -0.000000037092
 49       0.006131049749
 50       0.001410623467
 51      -0.000000060950
 52      -0.000406659953
 53       0.000000015015
 54      -0.000000001860
 55       0.000851967580
 56       0.000409691950
 57       0.032322508370
 58       0.009541760016
 59      -0.004204578497
 60       0.005638752672
 61      -0.000000165425
 62       0.012930338206
 63       0.005386150675
 64       0.000371407454
 65      -0.002699649757
 66      -0.000000015844
 67       0.002923137988
 68       0.000530305563
 69      -0.000445982966
 70       0.000282206937
 71       0.000000005470
 72       0.000562762884
 73      -0.000300111384
 74      -0.000404796174
 75      -0.000026446337
 76       0.000000002370
 Sym=     1a
 Ene= -1.07191856868305E+00
 Spin= Alpha
 Occup= 2.000000
  1       0.047935385301
  2       0.098786614313
  3       0.071784064081
  4      -0.003698737727
  5      -0.012616350073
  6      -0.000000129643
  7      -0.005315763332
  8      -0.004565054543
  9       0.000000111924
 10       0.000187136695
 11      -0.000000076292
 12       0.000000035585
 13      -0.000092867348
 14      -0.001837801794
 15       0.063257435667
 16      -0.127717660015
 17      -0.023750174221
 18      -0.098719311425
 19      -0.064612123271
 20      -0.000000517583
 21      -0.011026247740
 22      -0.014561745569
 23       0.000000105676
 24       0.004465430966
 25      -0.000000450046
 26      -0.000000239387
 27       0.007486448489
 28      -0.007739699979
 29       0.206303885303
 30      -0.405973309575
 31      -0.133869707805
 32      -0.095133216390
 33       0.028660569728
 34      -0.000000257696
 35      -0.030878775895
 36       0.024575216985
 37      -0.000000293748
 38       0.014228018210
 39      -0.000000160565
 40      -0.000000145732
 41      -0.010035326362
 42      -0.003555581252
 43       0.179810403971
 44      -0.345363036124
 45      -0.075113896386
 46       0.121004686973
 47       0.006239633704
 48       0.000000631699
 49       0.013495715164
 50      -0.009065770258
 51       0.000000015840
 52       0.010683889815
 53      -0.000000121743
 54      -0.000000026263
 55      -0.013756072391
 56      -0.000233089180
 57      -0.042517569757
 58      -0.006557983354
 59       0.001762021599
 60      -0.005388510725
 61       0.000000154991
 62      -0.105154110933
 63      -0.015202272152
 64      -0.009237282000
 65       0.012466282222
 66       0.000000060283
 67      -0.095254575618
 68      -0.013981009639
 69       0.008890693611
 70      -0.011510565874
 71      -0.000000073946
 72      -0.085007581956
 73      -0.006328985607
 74       0.008661232408
 75       0.010681802939
 76       0.000000058526
 Sym=     1a
 Ene= -8.68263172314645E-01
 Spin= Alpha
 Occup= 2.000000
  1      -0.088073370875
  2      -0.184242985440
  3      -0.163934836848
  4       0.098568698760
  5       0.025209526679
  6      -0.000001844472
  7       0.053649174759
  8       0.009423180847
  9      -0.000001313211
 10      -0.003190316220
 11      -0.000000141104
 12      -0.000000053365
 13       0.005401850018
 14       0.002439237830
 15      -0.147706573078
 16       0.313458351315
 17       0.084818176816
 18       0.121744197190
 19       0.072438490017
 20       0.000002118578
 21       0.039807524583
 22       0.014496697960
 23      -0.000000309865
 24      -0.007359891421
 25       0.000000426399
 26       0.000000176427
 27      -0.011240454210
 28       0.003547817277
 29      -0.077263526649
 30       0.160786946409
 31       0.084315902090
 32      -0.203558734269
 33      -0.096231684373
 34      -0.000001211365
 35      -0.054927953465
 36      -0.040391429455
 37       0.000000097658
 38      -0.003563552960
 39       0.000000130559
 40       0.000000265983
 41      -0.017008447889
 42       0.007267783210
 43       0.163318583795
 44      -0.325553067924
 45      -0.145649440438
 46      -0.044321565773
 47      -0.032998252870
 48       0.000000281889
 49      -0.013563402353
 50       0.001531999892
 51       0.000000216933
 52       0.005747962103
 53      -0.000000008535
 54      -0.000000059909
 55       0.002664097696
 56       0.001332026914
 57       0.122589987642
 58       0.021798978057
 59      -0.005846764151
 60       0.011188826965
 61      -0.000000336353
 62       0.083698385033
 63       0.014373835889
 64       0.001408673921
 65      -0.008381593548
 66      -0.000000056256
 67      -0.129467168846
 68      -0.015232047331
 69       0.006284109079
 70      -0.013782347692
 71      -0.000000088238
 72      -0.170162917610
 73      -0.028567832512
 74       0.009049620493
 75       0.015507666023
 76       0.000000060578
 Sym=     1a
 Ene= -7.63920012555971E-01
 Spin= Alpha
 Occup= 2.000000
  1       0.063479404244
  2       0.136082867052
  3       0.118755381819
  4      -0.151750556133
  5       0.075952944016
  6       0.000005215340
  7      -0.088453717206
  8       0.037685960055
  9       0.000003773053
 10       0.003920124321
 11       0.000000367762
 12      -0.000000128473
 13      -0.008209293342
 14       0.007170897776
 15       0.115885638594
 16      -0.242962313240
 17      -0.095176686228
 18      -0.044815943632
 19       0.200213844220
 20      -0.000002160936
 21      -0.057828462243
 22       0.064157152231
 23       0.000000809098
 24       0.004476420463
 25      -0.000000328896
 26       0.000000833027
 27      -0.004316250403
 28       0.003967765946
 29      -0.114894204924
 30       0.241201824248
 31       0.125071130182
 32      -0.037765143173
 33       0.112470949666
 34       0.000000793449
 35      -0.012011299190
 36       0.023253815436
 37       0.000000156018
 38      -0.003109713034
 39       0.000000030043
 40       0.000000098630
 41       0.002497956332
 42       0.000142084364
 43       0.060146169353
 44      -0.119475581013
 45      -0.073474215427
 46      -0.148652887607
 47       0.102742610007
 48       0.000000526961
 49      -0.044704947916
 50       0.046617962002
 51       0.000000131874
 52       0.001469343481
 53       0.000000047165
 54      -0.000000106754
 55       0.010811930091
 56      -0.000439065090
 57      -0.244448393015
 58      -0.058183822541
 59       0.011186994563
 60      -0.016924950655
 61       0.000000733243
 62       0.176440291932
 63       0.024011024424
 64       0.009385828491
 65      -0.014110047694
 66      -0.000000062199
 67      -0.181469620532
 68      -0.040430963135
 69       0.006551351129
 70      -0.012303461000
 71      -0.000000093583
 72      -0.050945851245
 73      -0.011387730090
 74       0.000014997021
 75       0.006464779424
 76       0.000000034480
 Sym=     1a
 Ene= -6.65977644166644E-01
 Spin= Alpha
 Occup= 2.000000
  1      -0.078928070294
  2      -0.164075296515
  3      -0.210892528305
  4       0.350284927209
  5       0.091619817405
  6      -0.000007282564
  7       0.197378428773
  8       0.048872610726
  9      -0.000003567930
 10      -0.008557206677
 11      -0.000000788608
 12      -0.000000155429
 13       0.014794868525
 14       0.007434282098
 15      -0.045291820811
 16       0.113241125094
 17      -0.013658675524
 18      -0.234272731241
 19       0.129190381384
 20       0.000002823331
 21      -0.024334300685
 22       0.054012825807
 23      -0.000000084557
 24      -0.005994591745
 25      -0.000001253501
 26       0.000000542860
 27       0.011531317534
 28      -0.001853655985
 29       0.023887802509
 30      -0.051904932892
 31      -0.004016932693
 32      -0.179866978978
 33       0.060259879033
 34      -0.000000279234
 35      -0.070389856877
 36       0.038052810178
 37       0.000000274608
 38       0.000481302185
 39       0.000000033650
 40       0.000000035202
 41      -0.002100190644
 42       0.008645763009
 43      -0.022383523203
 44       0.043314249423
 45       0.061540442500
 46       0.213785852922
 47       0.161747401976
 48       0.000001176509
 49       0.076409765677
 50       0.072182360170
 51       0.000000338268
 52       0.000238194030
 53      -0.000000055835
 54       0.000000015881
 55      -0.011568835583
 56       0.005190351632
 57      -0.135878571273
 58      -0.043458438300
 59       0.001963563085
 60      -0.009016663129
 61       0.000000482888
 62       0.072303994963
 63      -0.009562995208
 64       0.000467792785
 65      -0.005741784977
 66      -0.000000059462
 67      -0.006573723824
 68      -0.010177848421
 69       0.004450247463
 70       0.003479160038
 71       0.000000019452
 72       0.226262629847
 73       0.058807749377
 74      -0.006839135111
 75      -0.013008095145
 76      -0.000000044664
 Sym=     1a
 Ene= -6.38799356735100E-01
 Spin= Alpha
 Occup= 2.000000
  1      -0.029413246288
  2      -0.060950955773
  3      -0.083008998087
  4       0.164653020536
  5      -0.101122860506
  6       0.000007674960
  7       0.094882813109
  8      -0.051537158462
  9       0.000005458982
 10      -0.003573504340
 11       0.000000347706
 12       0.000000217052
 13       0.007549393882
 14      -0.008617257788
 15      -0.019904508229
 16       0.042822857026
 17       0.038059020110
 18      -0.092693929022
 19      -0.233524299604
 20       0.000010494855
 21       0.003493487659
 22      -0.072523726350
 23       0.000005277311
 24      -0.001533078689
 25      -0.000001122218
 26      -0.000000689980
 27       0.012191032891
 28      -0.002169360111
 29      -0.006116739740
 30       0.010510091048
 31      -0.019822055823
 32       0.258801993904
 33       0.132187429498
 34       0.000004992132
 35       0.098321961493
 36       0.068912306801
 37       0.000001982522
 38       0.000973758931
 39      -0.000000169752
 40      -0.000000527540
 41       0.010342679843
 42       0.002895146570
 43       0.003454600316
 44       0.000194253703
 45      -0.043700239753
 46      -0.252188583026
 47       0.254566410961
 48       0.000001710685
 49      -0.086342892075
 50       0.100370581406
 51       0.000000567340
 52      -0.000127283810
 53       0.000000004972
 54      -0.000000174014
 55       0.014423289913
 56       0.005812198505
 57       0.127298636642
 58       0.031899335027
 59      -0.007800067151
 60       0.006411053734
 61      -0.000000205312
 62      -0.028656368010
 63      -0.023826971146
 64       0.004177307973
 65       0.002662977495
 66       0.000000097747
 67      -0.293322088066
 68      -0.088662779013
 69       0.008142842260
 70      -0.016253021841
 71      -0.000000114088
 72       0.060977813425
 73       0.021710247337
 74      -0.008007937182
 75       0.001076975290
 76       0.000000023206
 Sym=     1a
 Ene= -6.02336386299052E-01
 Spin= Alpha
 Occup= 2.000000
  1       0.036296550014
  2       0.075607691073
  3       0.107934284059
  4      -0.306136417076
  5      -0.042140831537
  6       0.000027813253
  7      -0.182532361779
  8      -0.027496267480
  9       0.000017697381
 10       0.006478665242
 11       0.000001875901
 12       0.000000149575
 13      -0.012158568379
 14      -0.004074907659
 15      -0.020071743547
 16       0.034938402276
 17       0.131866008759
 18       0.267129829940
 19      -0.054907917375
 20       0.000011298163
 21       0.052698335915
 22      -0.001903530331
 23       0.000008703768
 24       0.004036442804
 25      -0.000000181583
 26      -0.000000153437
 27      -0.023852837084
 28      -0.003933281813
 29       0.014381689468
 30      -0.032427929366
 31      -0.034010596584
 32      -0.202506486536
 33       0.027216427018
 34       0.000002753306
 35      -0.043221228097
 36       0.021432727606
 37       0.000001564871
 38       0.000005678805
 39      -0.000000158018
 40      -0.000000182279
 41      -0.015853872762
 42       0.007986397401
 43       0.013937572211
 44      -0.039101522170
 45      -0.001251692683
 46       0.217968523532
 47       0.254625650100
 48       0.000002977893
 49       0.077035292009
 50       0.106316094743
 51       0.000000958214
 52       0.000058904993
 53      -0.000000174533
 54      -0.000000013417
 55      -0.010900000272
 56       0.010578770167
 57       0.177324758345
 58       0.060350904842
 59      -0.003717929886
 60       0.011845632547
 61      -0.000000313332
 62       0.085944207649
 63       0.030384681807
 64       0.000335946922
 65      -0.006167916379
 66       0.000000055342
 67      -0.109516088961
 68      -0.035986800564
 69       0.009125922246
 70      -0.002563086205
 71       0.000000021409
 72       0.275073034297
 73       0.096186944692
 74      -0.008373863398
 75      -0.013534089817
 76      -0.000000010864
 Sym=     1a
 Ene= -5.57325200026641E-01
 Spin= Alpha
 Occup= 2.000000
  1      -0.000000617518
  2      -0.000001148044
  3      -0.000002477461
  4       0.000025280039
  5      -0.000003166482
  6       0.496289147145
  7       0.000016499291
  8      -0.000001767385
  9       0.337346159265
 10      -0.000001537669
 11       0.028546254476
 12       0.001403366486
 13       0.000001222678
 14      -0.000000142857
 15       0.000006681324
 16      -0.000015294182
 17      -0.000013269527
 18      -0.000010068654
 19      -0.000005916764
 20       0.323730317916
 21       0.000000114454
 22      -0.000003090346
 23       0.195827305004
 24       0.000001809430
 25      -0.033174001860
 26       0.003988714338
 27      -0.000000320749
 28      -0.000000277807
 29      -0.000001161120
 30       0.000001693582
 31       0.000003023294
 32      -0.000004912625
 33       0.000014568525
 34       0.096098087824
 35      -0.000004127326
 36       0.000007802102
 37       0.043773443973
 38      -0.000000226135
 39      -0.004600323033
 40      -0.009102702106
 41      -0.000000059771
 42      -0.000001770334
 43       0.000000166427
 44      -0.000000136627
 45       0.000001183987
 46       0.000002137466
 47      -0.000025953017
 48       0.029117937952
 49       0.000000701818
 50      -0.000012097085
 51       0.005948189922
 52      -0.000000036402
 53      -0.004148453314
 54      -0.000443752349
 55      -0.000000189694
 56      -0.000001712414
 57      -0.000001355345
 58      -0.000000732064
 59      -0.000000177240
 60       0.000000023736
 61       0.006835826866
 62       0.000016980355
 63       0.000005253452
 64       0.000000560839
 65      -0.000000777375
 66       0.002634234048
 67       0.000022067701
 68       0.000008456793
 69      -0.000000889415
 70       0.000000841037
 71       0.000977663294
 72      -0.000019725590
 73      -0.000007857422
 74       0.000000896564
 75       0.000000711353
 76       0.000717281051
 Sym=     1a
 Ene= -5.42630697932002E-01
 Spin= Alpha
 Occup= 1.814066
  1      -0.005771403360
  2      -0.011241640207
  3      -0.023762933620
  4       0.045232480121
  5      -0.194077600814
  6      -0.000029946682
  7       0.027866408319
  8      -0.124009175125
  9      -0.000020174284
 10      -0.001229913396
 11      -0.000001783850
 12       0.000000212552
 13       0.002382211600
 14      -0.012237260366
 15       0.038012741994
 16      -0.086917789580
 17      -0.040683397368
 18      -0.082200423358
 19      -0.226894102830
 20      -0.000017462895
 21      -0.022132837548
 22      -0.090892400755
 23      -0.000010468068
 24       0.001215677614
 25       0.000001693352
 26      -0.000001061201
 27      -0.003456295839
 28       0.000083129096
 29      -0.018213961682
 30       0.024428504268
 31       0.061315259073
 32      -0.117771719548
 33       0.349313086300
 34      -0.000004642648
 35      -0.038642982572
 36       0.160444866365
 37      -0.000003121930
 38       0.000489534665
 39      -0.000000173066
 40       0.000000223104
 41      -0.006515869620
 42      -0.024978401235
 43       0.018403247058
 44      -0.042020441049
 45      -0.025777883754
 46       0.083885667242
 47      -0.147190451329
 48      -0.000004548130
 49       0.031640880794
 50      -0.086813719745
 51      -0.000002536080
 52       0.000095779393
 53       0.000000166911
 54       0.000000042607
 55      -0.004926977472
 56      -0.020123114920
 57       0.092530072772
 58       0.048973950535
 59      -0.004019459816
 60       0.003209711743
 61      -0.000000643243
 62       0.354182902121
 63       0.109990170674
 64       0.013660124593
 65      -0.017161299782
 66      -0.000000311001
 67       0.168201814638
 68       0.082416088116
 69      -0.004701093901
 70       0.005555826218
 71      -0.000000070020
 72      -0.117634961452
 73      -0.052324567913
 74       0.005976471818
 75       0.002936381093
 76      -0.000000106405
 Sym=     1a
 Ene= -3.56419723145174E-01
 Spin= Alpha
 Occup= 1.599727
  1      -0.000000442382
  2      -0.000002016344
  3       0.000005580437
  4      -0.000011123438
  5       0.000129320963
  6      -0.196464168785
  7      -0.000006801057
  8       0.000100199555
  9      -0.162589580237
 10       0.000000074472